<?xml version="1.0" encoding="UTF-8"?>

<!-- generated on Thu Sep 12 15:46:57 2019 by Eclipse SUMO Version 1.2.0
<configuration xmlns:xsi="http://www.w3.org/2001/XMLSchema-instance" xsi:noNamespaceSchemaLocation="http://sumo.dlr.de/xsd/sumoConfiguration.xsd">

    <input>
        <net-file value="../envs/v2.net.xml"/>
        <route-files value="../envs/basicnet.rou.xml"/>
    </input>

    <output>
        <netstate-dump value="../envs/virtualtraffic"/>
    </output>

    <time>
        <begin value="0"/>
        <end value="3600"/>
        <step-length value="0.1"/>
    </time>

    <processing>
        <collision.action value="remove"/>
        <collision.mingap-factor value="0"/>
        <time-to-teleport value="-1"/>
    </processing>

    <report>
        <xml-validation value="never"/>
        <no-warnings value="true"/>
        <duration-log.disable value="true"/>
        <no-step-log value="true"/>
    </report>

    <traci_server>
        <remote-port value="39047"/>
    </traci_server>

    <random_number>
        <random value="true"/>
    </random_number>

    <gui_only>
        <quit-on-end value="true"/>
        <start value="true"/>
        <tracker-interval value="0.1"/>
    </gui_only>

</configuration>
-->

<netstate xmlns:xsi="http://www.w3.org/2001/XMLSchema-instance" xsi:noNamespaceSchemaLocation="http://sumo.dlr.de/xsd/netstate_file.xsd">
    <timestep time="0.00"/>
    <timestep time="0.10"/>
    <timestep time="0.20"/>
    <timestep time="0.30"/>
    <timestep time="0.40"/>
    <timestep time="0.50"/>
    <timestep time="0.60"/>
    <timestep time="0.70"/>
    <timestep time="0.80"/>
    <timestep time="0.90"/>
    <timestep time="1.00"/>
    <timestep time="1.10"/>
    <timestep time="1.20"/>
    <timestep time="1.30"/>
    <timestep time="1.40"/>
    <timestep time="1.50"/>
    <timestep time="1.60"/>
    <timestep time="1.70"/>
    <timestep time="1.80"/>
    <timestep time="1.90"/>
    <timestep time="2.00"/>
    <timestep time="2.10"/>
    <timestep time="2.20"/>
    <timestep time="2.30"/>
    <timestep time="2.40"/>
    <timestep time="2.50"/>
    <timestep time="2.60"/>
    <timestep time="2.70"/>
    <timestep time="2.80"/>
    <timestep time="2.90"/>
    <timestep time="3.00"/>
    <timestep time="3.10"/>
    <timestep time="3.20"/>
    <timestep time="3.30"/>
    <timestep time="3.40"/>
    <timestep time="3.50"/>
    <timestep time="3.60"/>
    <timestep time="3.70"/>
    <timestep time="3.80"/>
    <timestep time="3.90"/>
    <timestep time="4.00"/>
    <timestep time="4.10"/>
    <timestep time="4.20"/>
    <timestep time="4.30"/>
    <timestep time="4.40"/>
    <timestep time="4.50"/>
    <timestep time="4.60"/>
    <timestep time="4.70"/>
    <timestep time="4.80"/>
    <timestep time="4.90"/>
    <timestep time="5.00">
        <edge id="A">
            <lane id="A_0">
                <vehicle id="ego" pos="5.30" speed="30.00"/>
            </lane>
            <lane id="A_1"/>
            <lane id="A_2"/>
        </edge>
    </timestep>
    <timestep time="5.10">
        <edge id="A">
            <lane id="A_0">
                <vehicle id="ego" pos="8.30" speed="30.00"/>
            </lane>
            <lane id="A_1"/>
            <lane id="A_2"/>
        </edge>
    </timestep>
    <timestep time="5.20">
        <edge id="A">
            <lane id="A_0">
                <vehicle id="ego" pos="11.33" speed="30.30"/>
            </lane>
            <lane id="A_1"/>
            <lane id="A_2"/>
        </edge>
    </timestep>
    <timestep time="5.30">
        <edge id="A">
            <lane id="A_0">
                <vehicle id="ego" pos="14.36" speed="30.30"/>
            </lane>
            <lane id="A_1"/>
            <lane id="A_2"/>
        </edge>
    </timestep>
    <timestep time="5.40">
        <edge id="A">
            <lane id="A_0">
                <vehicle id="ego" pos="17.39" speed="30.30"/>
            </lane>
            <lane id="A_1"/>
            <lane id="A_2"/>
        </edge>
    </timestep>
    <timestep time="5.50">
        <edge id="A">
            <lane id="A_0">
                <vehicle id="ego" pos="20.45" speed="30.60"/>
            </lane>
            <lane id="A_1"/>
            <lane id="A_2"/>
        </edge>
    </timestep>
    <timestep time="5.60">
        <edge id="A">
            <lane id="A_0">
                <vehicle id="ego" pos="23.51" speed="30.60"/>
            </lane>
            <lane id="A_1"/>
            <lane id="A_2"/>
        </edge>
    </timestep>
    <timestep time="5.70">
        <edge id="A">
            <lane id="A_0">
                <vehicle id="ego" pos="26.52" speed="30.10"/>
            </lane>
            <lane id="A_1"/>
            <lane id="A_2"/>
        </edge>
    </timestep>
    <timestep time="5.80">
        <edge id="A">
            <lane id="A_0">
                <vehicle id="ego" pos="29.48" speed="29.60"/>
            </lane>
            <lane id="A_1"/>
            <lane id="A_2"/>
        </edge>
    </timestep>
    <timestep time="5.90">
        <edge id="A">
            <lane id="A_0">
                <vehicle id="ego" pos="32.47" speed="29.90"/>
            </lane>
            <lane id="A_1"/>
            <lane id="A_2"/>
        </edge>
    </timestep>
    <timestep time="6.00">
        <edge id="A">
            <lane id="A_0">
                <vehicle id="ego" pos="35.49" speed="30.20"/>
            </lane>
            <lane id="A_1"/>
            <lane id="A_2"/>
        </edge>
    </timestep>
    <timestep time="6.10">
        <edge id="A">
            <lane id="A_0">
                <vehicle id="ego" pos="38.54" speed="30.50"/>
            </lane>
            <lane id="A_1"/>
            <lane id="A_2"/>
        </edge>
    </timestep>
    <timestep time="6.20">
        <edge id="A">
            <lane id="A_0">
                <vehicle id="ego" pos="41.62" speed="30.80"/>
            </lane>
            <lane id="A_1"/>
            <lane id="A_2"/>
        </edge>
    </timestep>
    <timestep time="6.30">
        <edge id="A">
            <lane id="A_0">
                <vehicle id="ego" pos="44.70" speed="30.80"/>
            </lane>
            <lane id="A_1"/>
            <lane id="A_2"/>
        </edge>
    </timestep>
    <timestep time="6.40">
        <edge id="A">
            <lane id="A_0">
                <vehicle id="ego" pos="47.78" speed="30.80"/>
            </lane>
            <lane id="A_1"/>
            <lane id="A_2"/>
        </edge>
    </timestep>
    <timestep time="6.50">
        <edge id="A">
            <lane id="A_0">
                <vehicle id="ego" pos="50.89" speed="31.10"/>
            </lane>
            <lane id="A_1"/>
            <lane id="A_2"/>
        </edge>
    </timestep>
    <timestep time="6.60">
        <edge id="A">
            <lane id="A_0">
                <vehicle id="ego" pos="53.95" speed="30.60"/>
            </lane>
            <lane id="A_1"/>
            <lane id="A_2"/>
        </edge>
    </timestep>
    <timestep time="6.70">
        <edge id="A">
            <lane id="A_0">
                <vehicle id="ego" pos="57.01" speed="30.60"/>
            </lane>
            <lane id="A_1"/>
            <lane id="A_2"/>
        </edge>
    </timestep>
    <timestep time="6.80">
        <edge id="A">
            <lane id="A_0">
                <vehicle id="ego" pos="60.02" speed="30.10"/>
            </lane>
            <lane id="A_1"/>
            <lane id="A_2"/>
        </edge>
    </timestep>
    <timestep time="6.90">
        <edge id="A">
            <lane id="A_0">
                <vehicle id="ego" pos="62.98" speed="29.60"/>
            </lane>
            <lane id="A_1"/>
            <lane id="A_2"/>
        </edge>
    </timestep>
    <timestep time="7.00">
        <edge id="A">
            <lane id="A_0">
                <vehicle id="ego" pos="65.94" speed="29.60"/>
            </lane>
            <lane id="A_1"/>
            <lane id="A_2"/>
        </edge>
    </timestep>
    <timestep time="7.10">
        <edge id="A">
            <lane id="A_0">
                <vehicle id="ego" pos="68.93" speed="29.90"/>
            </lane>
            <lane id="A_1"/>
            <lane id="A_2"/>
        </edge>
    </timestep>
    <timestep time="7.20">
        <edge id="A">
            <lane id="A_0">
                <vehicle id="ego" pos="71.92" speed="29.90"/>
            </lane>
            <lane id="A_1"/>
            <lane id="A_2"/>
        </edge>
    </timestep>
    <timestep time="7.30">
        <edge id="A">
            <lane id="A_0">
                <vehicle id="ego" pos="74.94" speed="30.20"/>
            </lane>
            <lane id="A_1"/>
            <lane id="A_2"/>
        </edge>
    </timestep>
    <timestep time="7.40">
        <edge id="A">
            <lane id="A_0">
                <vehicle id="ego" pos="77.96" speed="30.20"/>
            </lane>
            <lane id="A_1"/>
            <lane id="A_2"/>
        </edge>
    </timestep>
    <timestep time="7.50">
        <edge id="A">
            <lane id="A_0">
                <vehicle id="ego" pos="81.01" speed="30.50"/>
            </lane>
            <lane id="A_1"/>
            <lane id="A_2"/>
        </edge>
    </timestep>
    <timestep time="7.60">
        <edge id="A">
            <lane id="A_0">
                <vehicle id="ego" pos="84.06" speed="30.50"/>
            </lane>
            <lane id="A_1"/>
            <lane id="A_2"/>
        </edge>
    </timestep>
    <timestep time="7.70">
        <edge id="A">
            <lane id="A_0"/>
            <lane id="A_1">
                <vehicle id="ego" pos="87.06" speed="30.00"/>
            </lane>
            <lane id="A_2"/>
        </edge>
    </timestep>
    <timestep time="7.80">
        <edge id="A">
            <lane id="A_0"/>
            <lane id="A_1"/>
            <lane id="A_2">
                <vehicle id="ego" pos="90.06" speed="30.00"/>
            </lane>
        </edge>
    </timestep>
    <timestep time="7.90">
        <edge id="A">
            <lane id="A_0"/>
            <lane id="A_1"/>
            <lane id="A_2">
                <vehicle id="ego" pos="93.06" speed="30.00"/>
            </lane>
        </edge>
    </timestep>
</netstate>
