<?xml version="1.0" encoding="UTF-8"?>

<!-- generated on Thu Sep 12 15:54:32 2019 by Eclipse SUMO Version 1.2.0
<configuration xmlns:xsi="http://www.w3.org/2001/XMLSchema-instance" xsi:noNamespaceSchemaLocation="http://sumo.dlr.de/xsd/sumoConfiguration.xsd">

    <input>
        <net-file value="../envs/v2.net.xml"/>
        <route-files value="../envs/basicnet.rou.xml"/>
    </input>

    <output>
        <netstate-dump value="../envs/virtualtraffic"/>
    </output>

    <time>
        <begin value="0"/>
        <end value="3600"/>
        <step-length value="0.1"/>
    </time>

    <processing>
        <collision.action value="remove"/>
        <collision.mingap-factor value="0"/>
        <time-to-teleport value="-1"/>
    </processing>

    <report>
        <xml-validation value="never"/>
        <no-warnings value="true"/>
        <duration-log.disable value="true"/>
        <no-step-log value="true"/>
    </report>

    <traci_server>
        <remote-port value="39957"/>
    </traci_server>

    <random_number>
        <random value="true"/>
    </random_number>

    <gui_only>
        <quit-on-end value="true"/>
        <start value="true"/>
        <tracker-interval value="0.1"/>
    </gui_only>

</configuration>
-->

<netstate xmlns:xsi="http://www.w3.org/2001/XMLSchema-instance" xsi:noNamespaceSchemaLocation="http://sumo.dlr.de/xsd/netstate_file.xsd">
    <timestep time="0.00"/>
    <timestep time="0.10"/>
    <timestep time="0.20"/>
    <timestep time="0.30"/>
    <timestep time="0.40"/>
    <timestep time="0.50"/>
    <timestep time="0.60"/>
    <timestep time="0.70"/>
    <timestep time="0.80"/>
    <timestep time="0.90"/>
    <timestep time="1.00"/>
    <timestep time="1.10"/>
    <timestep time="1.20"/>
    <timestep time="1.30"/>
    <timestep time="1.40"/>
    <timestep time="1.50"/>
    <timestep time="1.60"/>
    <timestep time="1.70"/>
    <timestep time="1.80"/>
    <timestep time="1.90"/>
    <timestep time="2.00"/>
    <timestep time="2.10"/>
    <timestep time="2.20"/>
    <timestep time="2.30"/>
    <timestep time="2.40"/>
    <timestep time="2.50"/>
    <timestep time="2.60"/>
    <timestep time="2.70"/>
    <timestep time="2.80"/>
    <timestep time="2.90"/>
    <timestep time="3.00"/>
    <timestep time="3.10"/>
    <timestep time="3.20"/>
    <timestep time="3.30"/>
    <timestep time="3.40"/>
    <timestep time="3.50"/>
    <timestep time="3.60"/>
    <timestep time="3.70"/>
    <timestep time="3.80"/>
    <timestep time="3.90"/>
    <timestep time="4.00"/>
    <timestep time="4.10"/>
    <timestep time="4.20"/>
    <timestep time="4.30"/>
    <timestep time="4.40"/>
    <timestep time="4.50"/>
    <timestep time="4.60"/>
    <timestep time="4.70"/>
    <timestep time="4.80"/>
    <timestep time="4.90"/>
    <timestep time="5.00">
        <edge id="A">
            <lane id="A_0"/>
            <lane id="A_1"/>
            <lane id="A_2">
                <vehicle id="ego" pos="5.30" speed="30.00"/>
            </lane>
        </edge>
    </timestep>
    <timestep time="5.10">
        <edge id="A">
            <lane id="A_0"/>
            <lane id="A_1"/>
            <lane id="A_2">
                <vehicle id="ego" pos="8.30" speed="30.00"/>
            </lane>
        </edge>
    </timestep>
    <timestep time="5.20">
        <edge id="A">
            <lane id="A_0"/>
            <lane id="A_1"/>
            <lane id="A_2">
                <vehicle id="ego" pos="11.25" speed="29.50"/>
            </lane>
        </edge>
    </timestep>
    <timestep time="5.30">
        <edge id="A">
            <lane id="A_0"/>
            <lane id="A_1"/>
            <lane id="A_2">
                <vehicle id="ego" pos="14.23" speed="29.80"/>
            </lane>
        </edge>
    </timestep>
    <timestep time="5.40">
        <edge id="A">
            <lane id="A_0"/>
            <lane id="A_1"/>
            <lane id="A_2">
                <vehicle id="ego" pos="17.21" speed="29.80"/>
            </lane>
        </edge>
    </timestep>
    <timestep time="5.50">
        <edge id="A">
            <lane id="A_0"/>
            <lane id="A_1"/>
            <lane id="A_2">
                <vehicle id="ego" pos="20.19" speed="29.80"/>
            </lane>
        </edge>
    </timestep>
    <timestep time="5.60">
        <edge id="A">
            <lane id="A_0"/>
            <lane id="A_1"/>
            <lane id="A_2">
                <vehicle id="ego" pos="23.20" speed="30.10"/>
            </lane>
        </edge>
    </timestep>
    <timestep time="5.70">
        <edge id="A">
            <lane id="A_0"/>
            <lane id="A_1"/>
            <lane id="A_2">
                <vehicle id="ego" pos="26.21" speed="30.10"/>
            </lane>
        </edge>
    </timestep>
    <timestep time="5.80">
        <edge id="A">
            <lane id="A_0"/>
            <lane id="A_1"/>
            <lane id="A_2">
                <vehicle id="ego" pos="29.25" speed="30.40"/>
            </lane>
        </edge>
    </timestep>
    <timestep time="5.90">
        <edge id="A">
            <lane id="A_0"/>
            <lane id="A_1"/>
            <lane id="A_2">
                <vehicle id="ego" pos="32.24" speed="29.90"/>
            </lane>
        </edge>
    </timestep>
    <timestep time="6.00">
        <edge id="A">
            <lane id="A_0"/>
            <lane id="A_1"/>
            <lane id="A_2">
                <vehicle id="ego" pos="35.18" speed="29.40"/>
            </lane>
        </edge>
    </timestep>
    <timestep time="6.10">
        <edge id="A">
            <lane id="A_0"/>
            <lane id="A_1"/>
            <lane id="A_2">
                <vehicle id="ego" pos="38.12" speed="29.40"/>
            </lane>
        </edge>
    </timestep>
    <timestep time="6.20">
        <edge id="A">
            <lane id="A_0"/>
            <lane id="A_1"/>
            <lane id="A_2">
                <vehicle id="ego" pos="41.06" speed="29.40"/>
            </lane>
        </edge>
    </timestep>
    <timestep time="6.30">
        <edge id="A">
            <lane id="A_0"/>
            <lane id="A_1"/>
            <lane id="A_2">
                <vehicle id="ego" pos="43.95" speed="28.90"/>
            </lane>
        </edge>
    </timestep>
    <timestep time="6.40">
        <edge id="A">
            <lane id="A_0"/>
            <lane id="A_1"/>
            <lane id="A_2">
                <vehicle id="ego" pos="46.84" speed="28.90"/>
            </lane>
        </edge>
    </timestep>
    <timestep time="6.50">
        <edge id="A">
            <lane id="A_0"/>
            <lane id="A_1"/>
            <lane id="A_2">
                <vehicle id="ego" pos="49.68" speed="28.40"/>
            </lane>
        </edge>
    </timestep>
    <timestep time="6.60">
        <edge id="A">
            <lane id="A_0"/>
            <lane id="A_1"/>
            <lane id="A_2">
                <vehicle id="ego" pos="52.52" speed="28.40"/>
            </lane>
        </edge>
    </timestep>
    <timestep time="6.70">
        <edge id="A">
            <lane id="A_0"/>
            <lane id="A_1"/>
            <lane id="A_2">
                <vehicle id="ego" pos="55.31" speed="27.90"/>
            </lane>
        </edge>
    </timestep>
    <timestep time="6.80">
        <edge id="A">
            <lane id="A_0"/>
            <lane id="A_1"/>
            <lane id="A_2">
                <vehicle id="ego" pos="58.13" speed="28.20"/>
            </lane>
        </edge>
    </timestep>
    <timestep time="6.90">
        <edge id="A">
            <lane id="A_0"/>
            <lane id="A_1"/>
            <lane id="A_2">
                <vehicle id="ego" pos="60.90" speed="27.70"/>
            </lane>
        </edge>
    </timestep>
    <timestep time="7.00">
        <edge id="A">
            <lane id="A_0"/>
            <lane id="A_1"/>
            <lane id="A_2">
                <vehicle id="ego" pos="63.67" speed="27.70"/>
            </lane>
        </edge>
    </timestep>
    <timestep time="7.10">
        <edge id="A">
            <lane id="A_0"/>
            <lane id="A_1"/>
            <lane id="A_2">
                <vehicle id="ego" pos="66.39" speed="27.20"/>
            </lane>
        </edge>
    </timestep>
    <timestep time="7.20">
        <edge id="A">
            <lane id="A_0"/>
            <lane id="A_1"/>
            <lane id="A_2">
                <vehicle id="ego" pos="69.06" speed="26.70"/>
            </lane>
        </edge>
    </timestep>
    <timestep time="7.30">
        <edge id="A">
            <lane id="A_0"/>
            <lane id="A_1"/>
            <lane id="A_2">
                <vehicle id="ego" pos="71.73" speed="26.70"/>
            </lane>
        </edge>
    </timestep>
    <timestep time="7.40">
        <edge id="A">
            <lane id="A_0"/>
            <lane id="A_1"/>
            <lane id="A_2">
                <vehicle id="ego" pos="74.35" speed="26.20"/>
            </lane>
        </edge>
    </timestep>
    <timestep time="7.50">
        <edge id="A">
            <lane id="A_0"/>
            <lane id="A_1"/>
            <lane id="A_2">
                <vehicle id="ego" pos="77.00" speed="26.50"/>
            </lane>
        </edge>
    </timestep>
    <timestep time="7.60">
        <edge id="A">
            <lane id="A_0"/>
            <lane id="A_1"/>
            <lane id="A_2">
                <vehicle id="ego" pos="79.60" speed="26.00"/>
            </lane>
        </edge>
    </timestep>
    <timestep time="7.70">
        <edge id="A">
            <lane id="A_0"/>
            <lane id="A_1"/>
            <lane id="A_2">
                <vehicle id="ego" pos="82.23" speed="26.30"/>
            </lane>
        </edge>
    </timestep>
    <timestep time="7.80">
        <edge id="A">
            <lane id="A_0"/>
            <lane id="A_1"/>
            <lane id="A_2">
                <vehicle id="ego" pos="84.86" speed="26.30"/>
            </lane>
        </edge>
    </timestep>
    <timestep time="7.90">
        <edge id="A">
            <lane id="A_0"/>
            <lane id="A_1"/>
            <lane id="A_2">
                <vehicle id="ego" pos="87.52" speed="26.60"/>
            </lane>
        </edge>
    </timestep>
    <timestep time="8.00">
        <edge id="A">
            <lane id="A_0"/>
            <lane id="A_1"/>
            <lane id="A_2">
                <vehicle id="ego" pos="90.21" speed="26.90"/>
            </lane>
        </edge>
    </timestep>
    <timestep time="8.10">
        <edge id="A">
            <lane id="A_0"/>
            <lane id="A_1"/>
            <lane id="A_2">
                <vehicle id="ego" pos="92.85" speed="26.40"/>
            </lane>
        </edge>
    </timestep>
    <timestep time="8.20">
        <edge id="A">
            <lane id="A_0"/>
            <lane id="A_1"/>
            <lane id="A_2">
                <vehicle id="ego" pos="95.52" speed="26.70"/>
            </lane>
        </edge>
    </timestep>
    <timestep time="8.30">
        <edge id="A">
            <lane id="A_0"/>
            <lane id="A_1"/>
            <lane id="A_2">
                <vehicle id="ego" pos="98.22" speed="27.00"/>
            </lane>
        </edge>
    </timestep>
    <timestep time="8.40">
        <edge id="A">
            <lane id="A_0"/>
            <lane id="A_1"/>
            <lane id="A_2">
                <vehicle id="ego" pos="100.92" speed="27.00"/>
            </lane>
        </edge>
    </timestep>
</netstate>
