<?xml version="1.0" encoding="UTF-8"?>

<!-- generated on Sun May 12 16:04:05 2019 by Eclipse SUMO Version 1.1.0
<configuration xmlns:xsi="http://www.w3.org/2001/XMLSchema-instance" xsi:noNamespaceSchemaLocation="http://sumo.dlr.de/xsd/sumoConfiguration.xsd">

    <input>
        <net-file value="../envs/v2.net.xml"/>
        <route-files value="../envs/basicnet.rou.xml"/>
    </input>

    <output>
        <netstate-dump value="../envs/virtualtraffic"/>
    </output>

    <time>
        <begin value="0"/>
        <end value="3600"/>
        <step-length value="0.1"/>
    </time>

    <processing>
        <collision.action value="remove"/>
        <collision.mingap-factor value="0"/>
        <time-to-teleport value="-1"/>
    </processing>

    <report>
        <xml-validation value="never"/>
        <no-warnings value="true"/>
        <duration-log.disable value="true"/>
        <no-step-log value="true"/>
    </report>

    <traci_server>
        <remote-port value="37247"/>
    </traci_server>

    <gui_only>
        <quit-on-end value="true"/>
        <start value="true"/>
        <tracker-interval value="0.1"/>
    </gui_only>

</configuration>
-->

<netstate xmlns:xsi="http://www.w3.org/2001/XMLSchema-instance" xsi:noNamespaceSchemaLocation="http://sumo.dlr.de/xsd/netstate_file.xsd">
    <timestep time="0.00">
        <edge id="A">
            <lane id="A_0"/>
            <lane id="A_1">
                <vehicle id="carflow2.0" pos="3.80" speed="0.00"/>
            </lane>
            <lane id="A_2">
                <vehicle id="carflow1.0" pos="5.30" speed="0.00"/>
            </lane>
        </edge>
    </timestep>
    <timestep time="0.10">
        <edge id="A">
            <lane id="A_0"/>
            <lane id="A_1">
                <vehicle id="carflow2.0" pos="3.85" speed="0.49"/>
            </lane>
            <lane id="A_2">
                <vehicle id="carflow1.0" pos="5.35" speed="0.50"/>
            </lane>
        </edge>
    </timestep>
    <timestep time="0.20">
        <edge id="A">
            <lane id="A_0"/>
            <lane id="A_1">
                <vehicle id="carflow2.0" pos="3.95" speed="0.99"/>
            </lane>
            <lane id="A_2">
                <vehicle id="carflow1.0" pos="5.45" speed="0.99"/>
            </lane>
        </edge>
    </timestep>
    <timestep time="0.30">
        <edge id="A">
            <lane id="A_0"/>
            <lane id="A_1">
                <vehicle id="carflow2.0" pos="4.09" speed="1.42"/>
            </lane>
            <lane id="A_2">
                <vehicle id="carflow1.0" pos="5.60" speed="1.48"/>
            </lane>
        </edge>
    </timestep>
    <timestep time="0.40">
        <edge id="A">
            <lane id="A_0">
                <vehicle id="carflow3.0" pos="4.60" speed="0.00"/>
            </lane>
            <lane id="A_1">
                <vehicle id="carflow2.0" pos="4.28" speed="1.86"/>
            </lane>
            <lane id="A_2">
                <vehicle id="carflow1.0" pos="5.79" speed="1.96"/>
            </lane>
        </edge>
    </timestep>
    <timestep time="0.50">
        <edge id="A">
            <lane id="A_0">
                <vehicle id="carflow3.0" pos="4.65" speed="0.50"/>
            </lane>
            <lane id="A_1">
                <vehicle id="carflow2.0" pos="4.50" speed="2.29"/>
            </lane>
            <lane id="A_2">
                <vehicle id="carflow1.0" pos="6.04" speed="2.45"/>
            </lane>
        </edge>
    </timestep>
    <timestep time="0.60">
        <edge id="A">
            <lane id="A_0">
                <vehicle id="carflow3.0" pos="4.75" speed="0.97"/>
            </lane>
            <lane id="A_1">
                <vehicle id="carflow2.0" pos="4.76" speed="2.56"/>
            </lane>
            <lane id="A_2">
                <vehicle id="carflow1.0" pos="6.33" speed="2.92"/>
            </lane>
        </edge>
    </timestep>
    <timestep time="0.70">
        <edge id="A">
            <lane id="A_0">
                <vehicle id="carflow3.0" pos="4.89" speed="1.40"/>
            </lane>
            <lane id="A_1">
                <vehicle id="carflow2.0" pos="5.05" speed="2.89"/>
            </lane>
            <lane id="A_2">
                <vehicle id="carflow1.0" pos="6.67" speed="3.41"/>
            </lane>
        </edge>
    </timestep>
    <timestep time="0.80">
        <edge id="A">
            <lane id="A_0">
                <vehicle id="carflow3.0" pos="5.07" speed="1.88"/>
            </lane>
            <lane id="A_1">
                <vehicle id="carflow2.0" pos="5.38" speed="3.29"/>
            </lane>
            <lane id="A_2">
                <vehicle id="carflow1.0" pos="7.06" speed="3.91"/>
            </lane>
        </edge>
    </timestep>
    <timestep time="0.90">
        <edge id="A">
            <lane id="A_0">
                <vehicle id="carflow3.0" pos="5.30" speed="2.29"/>
            </lane>
            <lane id="A_1">
                <vehicle id="carflow2.0" pos="5.72" speed="3.43"/>
            </lane>
            <lane id="A_2">
                <vehicle id="carflow1.0" pos="7.50" speed="4.40"/>
            </lane>
        </edge>
    </timestep>
    <timestep time="1.00">
        <edge id="A">
            <lane id="A_0">
                <vehicle id="carflow3.0" pos="5.58" speed="2.78"/>
            </lane>
            <lane id="A_1">
                <vehicle id="carflow2.0" pos="6.10" speed="3.80"/>
            </lane>
            <lane id="A_2">
                <vehicle id="carflow1.0" pos="7.99" speed="4.87"/>
            </lane>
        </edge>
    </timestep>
    <timestep time="1.10">
        <edge id="A">
            <lane id="A_0">
                <vehicle id="carflow3.0" pos="5.91" speed="3.26"/>
            </lane>
            <lane id="A_1">
                <vehicle id="carflow2.0" pos="6.51" speed="4.12"/>
            </lane>
            <lane id="A_2">
                <vehicle id="carflow1.0" pos="8.53" speed="5.36"/>
            </lane>
        </edge>
    </timestep>
    <timestep time="1.20">
        <edge id="A">
            <lane id="A_0">
                <vehicle id="carflow3.0" pos="6.27" speed="3.58"/>
            </lane>
            <lane id="A_1">
                <vehicle id="carflow2.0" pos="6.96" speed="4.52"/>
            </lane>
            <lane id="A_2">
                <vehicle id="carflow1.0" pos="9.11" speed="5.85"/>
            </lane>
        </edge>
    </timestep>
    <timestep time="1.30">
        <edge id="A">
            <lane id="A_0">
                <vehicle id="carflow3.0" pos="6.67" speed="4.05"/>
            </lane>
            <lane id="A_1">
                <vehicle id="carflow2.0" pos="7.45" speed="4.89"/>
            </lane>
            <lane id="A_2">
                <vehicle id="carflow1.0" pos="9.74" speed="6.32"/>
            </lane>
        </edge>
    </timestep>
    <timestep time="1.40">
        <edge id="A">
            <lane id="A_0">
                <vehicle id="carflow3.0" pos="7.11" speed="4.36"/>
            </lane>
            <lane id="A_1">
                <vehicle id="carflow2.0" pos="7.96" speed="5.06"/>
            </lane>
            <lane id="A_2">
                <vehicle id="carflow1.0" pos="10.42" speed="6.82"/>
            </lane>
        </edge>
    </timestep>
    <timestep time="1.50">
        <edge id="A">
            <lane id="A_0">
                <vehicle id="carflow3.0" pos="7.58" speed="4.69"/>
            </lane>
            <lane id="A_1">
                <vehicle id="carflow2.0" pos="8.48" speed="5.21"/>
            </lane>
            <lane id="A_2">
                <vehicle id="carflow1.0" pos="11.15" speed="7.29"/>
            </lane>
        </edge>
    </timestep>
    <timestep time="1.60">
        <edge id="A">
            <lane id="A_0">
                <vehicle id="carflow3.0" pos="8.07" speed="4.96"/>
            </lane>
            <lane id="A_1">
                <vehicle id="carflow2.0" pos="9.04" speed="5.56"/>
            </lane>
            <lane id="A_2">
                <vehicle id="carflow1.0" pos="11.93" speed="7.74"/>
            </lane>
        </edge>
    </timestep>
    <timestep time="1.70">
        <edge id="A">
            <lane id="A_0">
                <vehicle id="carflow3.0" pos="8.61" speed="5.33"/>
            </lane>
            <lane id="A_1">
                <vehicle id="carflow2.0" pos="9.63" speed="5.98"/>
            </lane>
            <lane id="A_2">
                <vehicle id="carflow1.0" pos="12.75" speed="8.21"/>
            </lane>
        </edge>
    </timestep>
    <timestep time="1.80">
        <edge id="A">
            <lane id="A_0">
                <vehicle id="carflow3.0" pos="9.16" speed="5.59"/>
            </lane>
            <lane id="A_1">
                <vehicle id="carflow2.0" pos="10.25" speed="6.16"/>
            </lane>
            <lane id="A_2">
                <vehicle id="carflow1.0" pos="13.62" speed="8.70"/>
            </lane>
        </edge>
    </timestep>
    <timestep time="1.90">
        <edge id="A">
            <lane id="A_0">
                <vehicle id="carflow3.0" pos="9.77" speed="6.06"/>
            </lane>
            <lane id="A_1">
                <vehicle id="carflow2.0" pos="10.90" speed="6.52"/>
            </lane>
            <lane id="A_2">
                <vehicle id="carflow1.0" pos="14.54" speed="9.20"/>
            </lane>
        </edge>
    </timestep>
    <timestep time="2.00">
        <edge id="A">
            <lane id="A_0">
                <vehicle id="carflow3.0" pos="10.41" speed="6.42"/>
            </lane>
            <lane id="A_1">
                <vehicle id="carflow2.0" pos="11.60" speed="6.98"/>
            </lane>
            <lane id="A_2">
                <vehicle id="carflow1.0" pos="15.50" speed="9.65"/>
            </lane>
        </edge>
    </timestep>
    <timestep time="2.10">
        <edge id="A">
            <lane id="A_0">
                <vehicle id="carflow3.0" pos="11.08" speed="6.67"/>
            </lane>
            <lane id="A_1">
                <vehicle id="carflow2.0" pos="12.33" speed="7.31"/>
            </lane>
            <lane id="A_2">
                <vehicle id="carflow1.0" pos="16.52" speed="10.14"/>
            </lane>
        </edge>
    </timestep>
    <timestep time="2.20">
        <edge id="A">
            <lane id="A_0">
                <vehicle id="carflow3.0" pos="11.79" speed="7.12"/>
            </lane>
            <lane id="A_1">
                <vehicle id="carflow2.0" pos="13.11" speed="7.79"/>
            </lane>
            <lane id="A_2">
                <vehicle id="carflow1.0" pos="17.58" speed="10.63"/>
            </lane>
        </edge>
    </timestep>
    <timestep time="2.30">
        <edge id="A">
            <lane id="A_0">
                <vehicle id="carflow3.0" pos="12.54" speed="7.53"/>
            </lane>
            <lane id="A_1">
                <vehicle id="carflow2.0" pos="13.93" speed="8.18"/>
            </lane>
            <lane id="A_2">
                <vehicle id="carflow1.0" pos="18.69" speed="11.11"/>
            </lane>
        </edge>
    </timestep>
    <timestep time="2.40">
        <edge id="A">
            <lane id="A_0">
                <vehicle id="carflow3.0" pos="13.34" speed="7.92"/>
            </lane>
            <lane id="A_1">
                <vehicle id="carflow2.0" pos="14.78" speed="8.49"/>
            </lane>
            <lane id="A_2">
                <vehicle id="carflow1.0" pos="19.85" speed="11.58"/>
            </lane>
        </edge>
    </timestep>
    <timestep time="2.50">
        <edge id="A">
            <lane id="A_0">
                <vehicle id="carflow3.0" pos="14.16" speed="8.22"/>
            </lane>
            <lane id="A_1">
                <vehicle id="carflow2.0" pos="15.65" speed="8.78"/>
            </lane>
            <lane id="A_2">
                <vehicle id="carflow1.0" pos="21.05" speed="12.05"/>
            </lane>
        </edge>
    </timestep>
    <timestep time="2.60">
        <edge id="A">
            <lane id="A_0">
                <vehicle id="carflow3.0" pos="15.01" speed="8.47"/>
            </lane>
            <lane id="A_1">
                <vehicle id="carflow2.0" pos="16.57" speed="9.13"/>
            </lane>
            <lane id="A_2">
                <vehicle id="carflow1.0" pos="22.31" speed="12.55"/>
            </lane>
        </edge>
    </timestep>
    <timestep time="2.70">
        <edge id="A">
            <lane id="A_0">
                <vehicle id="carflow3.0" pos="15.89" speed="8.82"/>
            </lane>
            <lane id="A_1">
                <vehicle id="carflow2.0" pos="17.51" speed="9.38"/>
            </lane>
            <lane id="A_2">
                <vehicle id="carflow1.0" pos="23.61" speed="13.01"/>
            </lane>
        </edge>
    </timestep>
    <timestep time="2.80">
        <edge id="A">
            <lane id="A_0">
                <vehicle id="carflow3.0" pos="16.80" speed="9.14"/>
            </lane>
            <lane id="A_1">
                <vehicle id="carflow2.0" pos="18.45" speed="9.45"/>
            </lane>
            <lane id="A_2">
                <vehicle id="carflow1.0" pos="24.96" speed="13.48"/>
            </lane>
        </edge>
    </timestep>
    <timestep time="2.90">
        <edge id="A">
            <lane id="A_0">
                <vehicle id="carflow3.0" pos="17.74" speed="9.40"/>
            </lane>
            <lane id="A_1">
                <vehicle id="carflow2.0" pos="19.42" speed="9.74"/>
            </lane>
            <lane id="A_2">
                <vehicle id="carflow1.0" pos="26.36" speed="13.97"/>
            </lane>
        </edge>
    </timestep>
    <timestep time="3.00">
        <edge id="A">
            <lane id="A_0">
                <vehicle id="carflow3.0" pos="18.71" speed="9.72"/>
            </lane>
            <lane id="A_1">
                <vehicle id="carflow2.0" pos="20.42" speed="10.01"/>
            </lane>
            <lane id="A_2">
                <vehicle id="carflow1.0" pos="27.80" speed="14.46"/>
            </lane>
        </edge>
    </timestep>
    <timestep time="3.10">
        <edge id="A">
            <lane id="A_0">
                <vehicle id="carflow3.0" pos="19.72" speed="10.03"/>
            </lane>
            <lane id="A_1">
                <vehicle id="carflow2.0" pos="21.44" speed="10.15"/>
            </lane>
            <lane id="A_2">
                <vehicle id="carflow1.0" pos="29.30" speed="14.95"/>
            </lane>
        </edge>
    </timestep>
    <timestep time="3.20">
        <edge id="A">
            <lane id="A_0">
                <vehicle id="carflow3.0" pos="20.75" speed="10.35"/>
            </lane>
            <lane id="A_1">
                <vehicle id="carflow2.0" pos="22.46" speed="10.21"/>
            </lane>
            <lane id="A_2">
                <vehicle id="carflow1.0" pos="30.84" speed="15.44"/>
            </lane>
        </edge>
    </timestep>
    <timestep time="3.30">
        <edge id="A">
            <lane id="A_0">
                <vehicle id="carflow3.0" pos="21.82" speed="10.73"/>
            </lane>
            <lane id="A_1">
                <vehicle id="carflow2.0" pos="23.51" speed="10.51"/>
            </lane>
            <lane id="A_2">
                <vehicle id="carflow1.0" pos="32.44" speed="15.94"/>
            </lane>
        </edge>
    </timestep>
    <timestep time="3.40">
        <edge id="A">
            <lane id="A_0">
                <vehicle id="carflow3.0" pos="22.94" speed="11.19"/>
            </lane>
            <lane id="A_1">
                <vehicle id="carflow2.0" pos="24.60" speed="10.84"/>
            </lane>
            <lane id="A_2">
                <vehicle id="carflow1.0" pos="34.07" speed="16.39"/>
            </lane>
        </edge>
    </timestep>
    <timestep time="3.50">
        <edge id="A">
            <lane id="A_0">
                <vehicle id="carflow3.0" pos="24.10" speed="11.54"/>
            </lane>
            <lane id="A_1">
                <vehicle id="carflow2.0" pos="25.71" speed="11.15"/>
            </lane>
            <lane id="A_2">
                <vehicle id="carflow1.0" pos="35.76" speed="16.88"/>
            </lane>
        </edge>
    </timestep>
    <timestep time="3.60">
        <edge id="A">
            <lane id="A_0">
                <vehicle id="carflow3.0" pos="25.29" speed="11.90"/>
            </lane>
            <lane id="A_1">
                <vehicle id="carflow3.1" pos="4.60" speed="0.00"/>
                <vehicle id="carflow2.0" pos="26.87" speed="11.60"/>
            </lane>
            <lane id="A_2">
                <vehicle id="carflow2.1" pos="3.80" speed="0.00"/>
                <vehicle id="carflow1.0" pos="37.50" speed="17.35"/>
            </lane>
        </edge>
    </timestep>
    <timestep time="3.70">
        <edge id="A">
            <lane id="A_0">
                <vehicle id="carflow1.1" pos="5.30" speed="0.00"/>
                <vehicle id="carflow3.0" pos="26.51" speed="12.26"/>
            </lane>
            <lane id="A_1">
                <vehicle id="carflow3.1" pos="4.65" speed="0.49"/>
                <vehicle id="carflow2.0" pos="28.04" speed="11.66"/>
            </lane>
            <lane id="A_2">
                <vehicle id="carflow2.1" pos="3.85" speed="0.45"/>
                <vehicle id="carflow1.0" pos="39.28" speed="17.85"/>
            </lane>
        </edge>
    </timestep>
    <timestep time="3.80">
        <edge id="A">
            <lane id="A_0">
                <vehicle id="carflow1.1" pos="5.35" speed="0.50"/>
                <vehicle id="carflow3.0" pos="27.78" speed="12.67"/>
            </lane>
            <lane id="A_1">
                <vehicle id="carflow3.1" pos="4.74" speed="0.96"/>
                <vehicle id="carflow2.0" pos="29.25" speed="12.16"/>
            </lane>
            <lane id="A_2">
                <vehicle id="carflow2.1" pos="3.94" speed="0.92"/>
                <vehicle id="carflow1.0" pos="41.12" speed="18.33"/>
            </lane>
        </edge>
    </timestep>
    <timestep time="3.90">
        <edge id="A">
            <lane id="A_0">
                <vehicle id="carflow1.1" pos="5.45" speed="0.99"/>
                <vehicle id="carflow3.0" pos="29.07" speed="12.94"/>
            </lane>
            <lane id="A_1">
                <vehicle id="carflow3.1" pos="4.89" speed="1.43"/>
                <vehicle id="carflow2.0" pos="30.48" speed="12.25"/>
            </lane>
            <lane id="A_2">
                <vehicle id="carflow2.1" pos="4.07" speed="1.30"/>
                <vehicle id="carflow1.0" pos="43.00" speed="18.82"/>
            </lane>
        </edge>
    </timestep>
    <timestep time="4.00">
        <edge id="A">
            <lane id="A_0">
                <vehicle id="carflow1.1" pos="5.60" speed="1.49"/>
                <vehicle id="carflow3.0" pos="30.40" speed="13.25"/>
            </lane>
            <lane id="A_1">
                <vehicle id="carflow3.1" pos="5.08" speed="1.91"/>
                <vehicle id="carflow2.0" pos="31.74" speed="12.64"/>
            </lane>
            <lane id="A_2">
                <vehicle id="carflow2.1" pos="4.24" speed="1.74"/>
                <vehicle id="carflow1.0" pos="44.93" speed="19.28"/>
            </lane>
        </edge>
    </timestep>
    <timestep time="4.10">
        <edge id="A">
            <lane id="A_0">
                <vehicle id="carflow1.1" pos="5.80" speed="1.98"/>
                <vehicle id="carflow3.0" pos="31.76" speed="13.64"/>
            </lane>
            <lane id="A_1">
                <vehicle id="carflow3.1" pos="5.32" speed="2.40"/>
                <vehicle id="carflow2.0" pos="33.03" speed="12.85"/>
            </lane>
            <lane id="A_2">
                <vehicle id="carflow2.1" pos="4.46" speed="2.20"/>
                <vehicle id="carflow1.0" pos="46.90" speed="19.74"/>
            </lane>
        </edge>
    </timestep>
    <timestep time="4.20">
        <edge id="A">
            <lane id="A_0">
                <vehicle id="carflow1.1" pos="6.04" speed="2.48"/>
                <vehicle id="carflow3.0" pos="33.17" speed="14.11"/>
            </lane>
            <lane id="A_1">
                <vehicle id="carflow3.1" pos="5.59" speed="2.76"/>
                <vehicle id="carflow2.0" pos="34.35" speed="13.26"/>
            </lane>
            <lane id="A_2">
                <vehicle id="carflow2.1" pos="4.72" speed="2.64"/>
                <vehicle id="carflow1.0" pos="48.92" speed="20.23"/>
            </lane>
        </edge>
    </timestep>
    <timestep time="4.30">
        <edge id="A">
            <lane id="A_0">
                <vehicle id="carflow1.1" pos="6.34" speed="2.95"/>
                <vehicle id="carflow3.0" pos="34.63" speed="14.55"/>
            </lane>
            <lane id="A_1">
                <vehicle id="carflow3.1" pos="5.91" speed="3.11"/>
                <vehicle id="carflow2.0" pos="35.72" speed="13.64"/>
            </lane>
            <lane id="A_2">
                <vehicle id="carflow2.1" pos="5.03" speed="3.08"/>
                <vehicle id="carflow1.0" pos="50.99" speed="20.71"/>
            </lane>
        </edge>
    </timestep>
    <timestep time="4.40">
        <edge id="A">
            <lane id="A_0">
                <vehicle id="carflow1.1" pos="6.68" speed="3.42"/>
                <vehicle id="carflow3.0" pos="36.12" speed="14.90"/>
            </lane>
            <lane id="A_1">
                <vehicle id="carflow3.1" pos="6.27" speed="3.60"/>
                <vehicle id="carflow2.0" pos="37.10" speed="13.85"/>
            </lane>
            <lane id="A_2">
                <vehicle id="carflow2.1" pos="5.39" speed="3.55"/>
                <vehicle id="carflow1.0" pos="53.11" speed="21.19"/>
            </lane>
        </edge>
    </timestep>
    <timestep time="4.50">
        <edge id="A">
            <lane id="A_0">
                <vehicle id="carflow1.1" pos="7.07" speed="3.90"/>
                <vehicle id="carflow3.0" pos="37.64" speed="15.22"/>
            </lane>
            <lane id="A_1">
                <vehicle id="carflow3.1" pos="6.66" speed="3.98"/>
                <vehicle id="carflow2.0" pos="38.54" speed="14.35"/>
            </lane>
            <lane id="A_2">
                <vehicle id="carflow2.1" pos="5.77" speed="3.87"/>
                <vehicle id="carflow1.0" pos="55.28" speed="21.68"/>
            </lane>
        </edge>
    </timestep>
    <timestep time="4.60">
        <edge id="A">
            <lane id="A_0">
                <vehicle id="carflow1.1" pos="7.51" speed="4.36"/>
                <vehicle id="carflow3.0" pos="39.20" speed="15.61"/>
            </lane>
            <lane id="A_1">
                <vehicle id="carflow3.1" pos="7.09" speed="4.26"/>
                <vehicle id="carflow2.0" pos="40.01" speed="14.75"/>
            </lane>
            <lane id="A_2">
                <vehicle id="carflow2.1" pos="6.19" speed="4.10"/>
                <vehicle id="carflow1.0" pos="57.49" speed="22.14"/>
            </lane>
        </edge>
    </timestep>
    <timestep time="4.70">
        <edge id="A">
            <lane id="A_0">
                <vehicle id="carflow1.1" pos="7.99" speed="4.84"/>
                <vehicle id="carflow3.0" pos="40.81" speed="16.08"/>
            </lane>
            <lane id="A_1">
                <vehicle id="carflow3.1" pos="7.55" speed="4.63"/>
                <vehicle id="carflow2.0" pos="41.53" speed="15.14"/>
            </lane>
            <lane id="A_2">
                <vehicle id="carflow2.1" pos="6.62" speed="4.34"/>
                <vehicle id="carflow1.0" pos="59.76" speed="22.64"/>
            </lane>
        </edge>
    </timestep>
    <timestep time="4.80">
        <edge id="A">
            <lane id="A_0">
                <vehicle id="carflow1.1" pos="8.52" speed="5.32"/>
                <vehicle id="carflow3.0" pos="42.45" speed="16.36"/>
            </lane>
            <lane id="A_1">
                <vehicle id="carflow3.1" pos="8.06" speed="5.05"/>
                <vehicle id="carflow2.0" pos="43.08" speed="15.54"/>
            </lane>
            <lane id="A_2">
                <vehicle id="carflow2.1" pos="7.09" speed="4.72"/>
                <vehicle id="carflow1.0" pos="62.07" speed="23.10"/>
            </lane>
        </edge>
    </timestep>
    <timestep time="4.90">
        <edge id="A">
            <lane id="A_0">
                <vehicle id="carflow1.1" pos="9.10" speed="5.81"/>
                <vehicle id="carflow3.0" pos="44.12" speed="16.75"/>
            </lane>
            <lane id="A_1">
                <vehicle id="carflow3.1" pos="8.59" speed="5.31"/>
                <vehicle id="carflow2.0" pos="44.67" speed="15.89"/>
            </lane>
            <lane id="A_2">
                <vehicle id="carflow2.1" pos="7.57" speed="4.81"/>
                <vehicle id="carflow1.0" pos="64.42" speed="23.56"/>
            </lane>
        </edge>
    </timestep>
    <timestep time="5.00">
        <edge id="A">
            <lane id="A_0">
                <vehicle id="carflow1.1" pos="9.73" speed="6.28"/>
                <vehicle id="carflow3.0" pos="45.73" speed="16.15"/>
            </lane>
            <lane id="A_1">
                <vehicle id="carflow3.1" pos="9.15" speed="5.58"/>
                <vehicle id="carflow2.0" pos="46.31" speed="16.37"/>
            </lane>
            <lane id="A_2">
                <vehicle id="carflow2.1" pos="8.10" speed="5.29"/>
                <vehicle id="carflow1.0" pos="66.83" speed="24.06"/>
            </lane>
        </edge>
    </timestep>
    <timestep time="5.10">
        <edge id="A">
            <lane id="A_0">
                <vehicle id="carflow1.1" pos="10.41" speed="6.77"/>
                <vehicle id="carflow3.0" pos="47.39" speed="16.56"/>
            </lane>
            <lane id="A_1">
                <vehicle id="carflow3.1" pos="9.74" speed="5.94"/>
                <vehicle id="carflow2.0" pos="47.97" speed="16.60"/>
            </lane>
            <lane id="A_2">
                <vehicle id="carflow2.1" pos="8.64" speed="5.40"/>
                <vehicle id="carflow1.0" pos="69.28" speed="24.55"/>
            </lane>
        </edge>
    </timestep>
    <timestep time="5.20">
        <edge id="A">
            <lane id="A_0">
                <vehicle id="carflow1.1" pos="11.13" speed="7.23"/>
                <vehicle id="carflow3.0" pos="49.08" speed="16.94"/>
            </lane>
            <lane id="A_1">
                <vehicle id="carflow3.1" pos="10.38" speed="6.35"/>
                <vehicle id="carflow2.0" pos="49.66" speed="16.91"/>
            </lane>
            <lane id="A_2">
                <vehicle id="carflow2.1" pos="9.21" speed="5.66"/>
                <vehicle id="carflow1.0" pos="71.79" speed="25.01"/>
            </lane>
        </edge>
    </timestep>
    <timestep time="5.30">
        <edge id="A">
            <lane id="A_0">
                <vehicle id="carflow1.1" pos="11.90" speed="7.72"/>
                <vehicle id="carflow3.0" pos="50.78" speed="16.91"/>
            </lane>
            <lane id="A_1">
                <vehicle id="carflow3.1" pos="11.05" speed="6.79"/>
                <vehicle id="carflow2.0" pos="51.37" speed="17.08"/>
            </lane>
            <lane id="A_2">
                <vehicle id="carflow2.1" pos="9.81" speed="6.00"/>
                <vehicle id="carflow1.0" pos="74.34" speed="25.50"/>
            </lane>
        </edge>
    </timestep>
    <timestep time="5.40">
        <edge id="A">
            <lane id="A_0">
                <vehicle id="carflow1.1" pos="12.72" speed="8.19"/>
                <vehicle id="carflow3.0" pos="52.48" speed="17.08"/>
            </lane>
            <lane id="A_1">
                <vehicle id="carflow3.1" pos="11.78" speed="7.29"/>
                <vehicle id="carflow2.0" pos="53.09" speed="17.21"/>
            </lane>
            <lane id="A_2">
                <vehicle id="carflow2.1" pos="10.41" speed="6.04"/>
                <vehicle id="carflow1.0" pos="76.94" speed="26.00"/>
            </lane>
        </edge>
    </timestep>
    <timestep time="5.50">
        <edge id="A">
            <lane id="A_0">
                <vehicle id="carflow1.1" pos="13.59" speed="8.65"/>
                <vehicle id="carflow3.0" pos="54.21" speed="17.21"/>
            </lane>
            <lane id="A_1">
                <vehicle id="carflow3.1" pos="12.55" speed="7.64"/>
                <vehicle id="carflow2.0" pos="54.86" speed="17.70"/>
            </lane>
            <lane id="A_2">
                <vehicle id="carflow2.1" pos="11.02" speed="6.14"/>
                <vehicle id="carflow1.0" pos="79.58" speed="26.46"/>
            </lane>
        </edge>
    </timestep>
    <timestep time="5.60">
        <edge id="A">
            <lane id="A_0">
                <vehicle id="carflow1.1" pos="14.50" speed="9.14"/>
                <vehicle id="carflow3.0" pos="55.97" speed="17.61"/>
            </lane>
            <lane id="A_1">
                <vehicle id="carflow3.1" pos="13.34" speed="7.91"/>
                <vehicle id="carflow2.0" pos="56.64" speed="17.87"/>
            </lane>
            <lane id="A_2">
                <vehicle id="carflow2.1" pos="11.65" speed="6.22"/>
                <vehicle id="carflow1.0" pos="82.28" speed="26.94"/>
            </lane>
        </edge>
    </timestep>
    <timestep time="5.70">
        <edge id="A">
            <lane id="A_0">
                <vehicle id="carflow1.1" pos="15.46" speed="9.62"/>
                <vehicle id="carflow3.0" pos="57.75" speed="17.87"/>
            </lane>
            <lane id="A_1">
                <vehicle id="carflow3.1" pos="14.16" speed="8.24"/>