<?xml version="1.0" encoding="UTF-8"?>

<!-- generated on Tue Jul  2 18:31:25 2019 by Eclipse SUMO Version 1.2.0
<configuration xmlns:xsi="http://www.w3.org/2001/XMLSchema-instance" xsi:noNamespaceSchemaLocation="http://sumo.dlr.de/xsd/sumoConfiguration.xsd">

    <input>
        <net-file value="../envs/v2.net.xml"/>
        <route-files value="../envs/basicnet.rou.xml"/>
    </input>

    <output>
        <netstate-dump value="../envs/virtualtraffic"/>
    </output>

    <time>
        <begin value="0"/>
        <end value="3600"/>
        <step-length value="0.1"/>
    </time>

    <processing>
        <collision.action value="remove"/>
        <collision.mingap-factor value="0"/>
        <time-to-teleport value="-1"/>
    </processing>

    <report>
        <xml-validation value="never"/>
        <no-warnings value="true"/>
        <duration-log.disable value="true"/>
        <no-step-log value="true"/>
    </report>

    <traci_server>
        <remote-port value="46771"/>
    </traci_server>

    <gui_only>
        <quit-on-end value="true"/>
        <start value="true"/>
        <tracker-interval value="0.1"/>
    </gui_only>

</configuration>
-->

<netstate xmlns:xsi="http://www.w3.org/2001/XMLSchema-instance" xsi:noNamespaceSchemaLocation="http://sumo.dlr.de/xsd/netstate_file.xsd">
    <timestep time="0.00">
        <edge id="A">
            <lane id="A_0"/>
            <lane id="A_1">
                <vehicle id="carflow2.0" pos="3.80" speed="0.00"/>
            </lane>
            <lane id="A_2">
                <vehicle id="carflow1.0" pos="5.30" speed="0.00"/>
            </lane>
        </edge>
    </timestep>
    <timestep time="0.10">
        <edge id="A">
            <lane id="A_0">
                <vehicle id="carflow3.0" pos="4.60" speed="0.00"/>
            </lane>
            <lane id="A_1">
                <vehicle id="carflow2.0" pos="3.85" speed="0.49"/>
            </lane>
            <lane id="A_2">
                <vehicle id="carflow1.0" pos="5.35" speed="0.50"/>
            </lane>
        </edge>
    </timestep>
    <timestep time="0.20">
        <edge id="A">
            <lane id="A_0">
                <vehicle id="carflow3.0" pos="4.65" speed="0.49"/>
            </lane>
            <lane id="A_1">
                <vehicle id="carflow2.0" pos="3.94" speed="0.94"/>
            </lane>
            <lane id="A_2">
                <vehicle id="carflow1.0" pos="5.45" speed="0.99"/>
            </lane>
        </edge>
    </timestep>
    <timestep time="0.30">
        <edge id="A">
            <lane id="A_0">
                <vehicle id="carflow3.0" pos="4.75" speed="0.98"/>
            </lane>
            <lane id="A_1">
                <vehicle id="carflow2.0" pos="4.08" speed="1.38"/>
            </lane>
            <lane id="A_2">
                <vehicle id="carflow1.0" pos="5.60" speed="1.48"/>
            </lane>
        </edge>
    </timestep>
    <timestep time="0.40">
        <edge id="A">
            <lane id="A_0">
                <vehicle id="carflow3.0" pos="4.89" speed="1.47"/>
            </lane>
            <lane id="A_1">
                <vehicle id="carflow2.0" pos="4.25" speed="1.72"/>
            </lane>
            <lane id="A_2">
                <vehicle id="carflow1.0" pos="5.79" speed="1.97"/>
            </lane>
        </edge>
    </timestep>
    <timestep time="0.50">
        <edge id="A">
            <lane id="A_0">
                <vehicle id="carflow3.0" pos="5.08" speed="1.90"/>
            </lane>
            <lane id="A_1">
                <vehicle id="carflow2.0" pos="4.46" speed="2.05"/>
            </lane>
            <lane id="A_2">
                <vehicle id="carflow1.0" pos="6.04" speed="2.46"/>
            </lane>
        </edge>
    </timestep>
    <timestep time="0.60">
        <edge id="A">
            <lane id="A_0">
                <vehicle id="carflow3.0" pos="5.32" speed="2.32"/>
            </lane>
            <lane id="A_1">
                <vehicle id="carflow2.0" pos="4.70" speed="2.39"/>
            </lane>
            <lane id="A_2">
                <vehicle id="carflow1.0" pos="6.33" speed="2.94"/>
            </lane>
        </edge>
    </timestep>
    <timestep time="0.70">
        <edge id="A">
            <lane id="A_0">
                <vehicle id="carflow3.0" pos="5.59" speed="2.73"/>
            </lane>
            <lane id="A_1">
                <vehicle id="carflow2.0" pos="4.96" speed="2.62"/>
            </lane>
            <lane id="A_2">
                <vehicle id="carflow1.0" pos="6.68" speed="3.42"/>
            </lane>
        </edge>
    </timestep>
    <timestep time="0.80">
        <edge id="A">
            <lane id="A_0">
                <vehicle id="carflow3.0" pos="5.90" speed="3.15"/>
            </lane>
            <lane id="A_1">
                <vehicle id="carflow2.0" pos="5.25" speed="2.91"/>
            </lane>
            <lane id="A_2">
                <vehicle id="carflow1.0" pos="7.07" speed="3.89"/>
            </lane>
        </edge>
    </timestep>
    <timestep time="0.90">
        <edge id="A">
            <lane id="A_0">
                <vehicle id="carflow3.0" pos="6.26" speed="3.54"/>
            </lane>
            <lane id="A_1">
                <vehicle id="carflow2.0" pos="5.56" speed="3.10"/>
            </lane>
            <lane id="A_2">
                <vehicle id="carflow1.0" pos="7.50" speed="4.38"/>
            </lane>
        </edge>
    </timestep>
    <timestep time="1.00">
        <edge id="A">
            <lane id="A_0">
                <vehicle id="carflow3.0" pos="6.64" speed="3.86"/>
            </lane>
            <lane id="A_1">
                <vehicle id="carflow2.0" pos="5.90" speed="3.42"/>
            </lane>
            <lane id="A_2">
                <vehicle id="carflow1.0" pos="7.99" speed="4.85"/>
            </lane>
        </edge>
    </timestep>
    <timestep time="1.10">
        <edge id="A">
            <lane id="A_0">
                <vehicle id="carflow3.0" pos="7.06" speed="4.15"/>
            </lane>
            <lane id="A_1">
                <vehicle id="carflow2.0" pos="6.28" speed="3.82"/>
            </lane>
            <lane id="A_2">
                <vehicle id="carflow1.0" pos="8.52" speed="5.32"/>
            </lane>
        </edge>
    </timestep>
    <timestep time="1.20">
        <edge id="A">
            <lane id="A_0">
                <vehicle id="carflow3.0" pos="7.52" speed="4.60"/>
            </lane>
            <lane id="A_1">
                <vehicle id="carflow2.0" pos="6.69" speed="4.08"/>
            </lane>
            <lane id="A_2">
                <vehicle id="carflow1.0" pos="9.10" speed="5.77"/>
            </lane>
        </edge>
    </timestep>
    <timestep time="1.30">
        <edge id="A">
            <lane id="A_0">
                <vehicle id="carflow3.0" pos="8.02" speed="4.96"/>
            </lane>
            <lane id="A_1">
                <vehicle id="carflow2.0" pos="7.15" speed="4.53"/>
            </lane>
            <lane id="A_2">
                <vehicle id="carflow1.0" pos="9.72" speed="6.24"/>
            </lane>
        </edge>
    </timestep>
    <timestep time="1.40">
        <edge id="A">
            <lane id="A_0">
                <vehicle id="carflow3.0" pos="8.55" speed="5.39"/>
            </lane>
            <lane id="A_1">
                <vehicle id="carflow2.0" pos="7.63" speed="4.86"/>
            </lane>
            <lane id="A_2">
                <vehicle id="carflow1.0" pos="10.40" speed="6.74"/>
            </lane>
        </edge>
    </timestep>
    <timestep time="1.50">
        <edge id="A">
            <lane id="A_0">
                <vehicle id="carflow3.0" pos="9.14" speed="5.82"/>
            </lane>
            <lane id="A_1">
                <vehicle id="carflow2.0" pos="8.12" speed="4.89"/>
            </lane>
            <lane id="A_2">
                <vehicle id="carflow1.0" pos="11.11" speed="7.19"/>
            </lane>
        </edge>
    </timestep>
    <timestep time="1.60">
        <edge id="A">
            <lane id="A_0">
                <vehicle id="carflow3.0" pos="9.77" speed="6.32"/>
            </lane>
            <lane id="A_1">
                <vehicle id="carflow2.0" pos="8.61" speed="4.91"/>
            </lane>
            <lane id="A_2">
                <vehicle id="carflow1.0" pos="11.88" speed="7.65"/>
            </lane>
        </edge>
    </timestep>
    <timestep time="1.70">
        <edge id="A">
            <lane id="A_0">
                <vehicle id="carflow3.0" pos="10.44" speed="6.72"/>
            </lane>
            <lane id="A_1">
                <vehicle id="carflow2.0" pos="9.14" speed="5.30"/>
            </lane>
            <lane id="A_2">
                <vehicle id="carflow1.0" pos="12.69" speed="8.13"/>
            </lane>
        </edge>
    </timestep>
    <timestep time="1.80">
        <edge id="A">
            <lane id="A_0">
                <vehicle id="carflow3.0" pos="11.15" speed="7.13"/>
            </lane>
            <lane id="A_1">
                <vehicle id="carflow2.0" pos="9.68" speed="5.40"/>
            </lane>
            <lane id="A_2">
                <vehicle id="carflow1.0" pos="13.55" speed="8.58"/>
            </lane>
        </edge>
    </timestep>
    <timestep time="1.90">
        <edge id="A">
            <lane id="A_0">
                <vehicle id="carflow3.0" pos="11.89" speed="7.42"/>
            </lane>
            <lane id="A_1">
                <vehicle id="carflow2.0" pos="10.23" speed="5.43"/>
            </lane>
            <lane id="A_2">
                <vehicle id="carflow1.0" pos="14.46" speed="9.08"/>
            </lane>
        </edge>
    </timestep>
    <timestep time="2.00">
        <edge id="A">
            <lane id="A_0">
                <vehicle id="carflow3.0" pos="12.67" speed="7.74"/>
            </lane>
            <lane id="A_1">
                <vehicle id="carflow2.0" pos="10.81" speed="5.87"/>
            </lane>
            <lane id="A_2">
                <vehicle id="carflow1.0" pos="15.41" speed="9.54"/>
            </lane>
        </edge>
    </timestep>
    <timestep time="2.10">
        <edge id="A">
            <lane id="A_0">
                <vehicle id="carflow3.0" pos="13.47" speed="8.05"/>
            </lane>
            <lane id="A_1">
                <vehicle id="carflow2.0" pos="11.41" speed="5.96"/>
            </lane>
            <lane id="A_2">
                <vehicle id="carflow1.0" pos="16.41" speed="9.99"/>
            </lane>
        </edge>
    </timestep>
    <timestep time="2.20">
        <edge id="A">
            <lane id="A_0">
                <vehicle id="carflow3.0" pos="14.31" speed="8.38"/>
            </lane>
            <lane id="A_1">
                <vehicle id="carflow2.0" pos="12.04" speed="6.34"/>
            </lane>
            <lane id="A_2">
                <vehicle id="carflow1.0" pos="17.46" speed="10.45"/>
            </lane>
        </edge>
    </timestep>
    <timestep time="2.30">
        <edge id="A">
            <lane id="A_0">
                <vehicle id="carflow3.0" pos="15.19" speed="8.75"/>
            </lane>
            <lane id="A_1">
                <vehicle id="carflow2.0" pos="12.72" speed="6.74"/>
            </lane>
            <lane id="A_2">
                <vehicle id="carflow1.0" pos="18.55" speed="10.92"/>
            </lane>
        </edge>
    </timestep>
    <timestep time="2.40">
        <edge id="A">
            <lane id="A_0">
                <vehicle id="carflow3.0" pos="16.11" speed="9.21"/>
            </lane>
            <lane id="A_1">
                <vehicle id="carflow2.0" pos="13.44" speed="7.24"/>
            </lane>
            <lane id="A_2">
                <vehicle id="carflow1.0" pos="19.69" speed="11.40"/>
            </lane>
        </edge>
    </timestep>
    <timestep time="2.50">
        <edge id="A">
            <lane id="A_0">
                <vehicle id="carflow3.0" pos="17.07" speed="9.66"/>
            </lane>
            <lane id="A_1">
                <vehicle id="carflow2.0" pos="14.20" speed="7.63"/>
            </lane>
            <lane id="A_2">
                <vehicle id="carflow1.0" pos="20.87" speed="11.86"/>
            </lane>
        </edge>
    </timestep>
    <timestep time="2.60">
        <edge id="A">
            <lane id="A_0">
                <vehicle id="carflow3.0" pos="18.07" speed="9.93"/>
            </lane>
            <lane id="A_1">
                <vehicle id="carflow2.0" pos="15.00" speed="8.00"/>
            </lane>
            <lane id="A_2">
                <vehicle id="carflow1.0" pos="22.11" speed="12.35"/>
            </lane>
        </edge>
    </timestep>
    <timestep time="2.70">
        <edge id="A">
            <lane id="A_0">
                <vehicle id="carflow3.0" pos="19.10" speed="10.35"/>
            </lane>
            <lane id="A_1">
                <vehicle id="carflow2.0" pos="15.81" speed="8.13"/>
            </lane>
            <lane id="A_2">
                <vehicle id="carflow1.0" pos="23.39" speed="12.81"/>
            </lane>
        </edge>
    </timestep>
    <timestep time="2.80">
        <edge id="A">
            <lane id="A_0">
                <vehicle id="carflow3.0" pos="20.17" speed="10.68"/>
            </lane>
            <lane id="A_1">
                <vehicle id="carflow2.0" pos="16.68" speed="8.62"/>
            </lane>
            <lane id="A_2">
                <vehicle id="carflow1.0" pos="24.72" speed="13.27"/>
            </lane>
        </edge>
    </timestep>
    <timestep time="2.90">
        <edge id="A">
            <lane id="A_0">
                <vehicle id="carflow3.0" pos="21.29" speed="11.16"/>
            </lane>
            <lane id="A_1">
                <vehicle id="carflow2.0" pos="17.58" speed="9.05"/>
            </lane>
            <lane id="A_2">
                <vehicle id="carflow1.0" pos="26.09" speed="13.76"/>
            </lane>
        </edge>
    </timestep>
    <timestep time="3.00">
        <edge id="A">
            <lane id="A_0">
                <vehicle id="carflow3.0" pos="22.44" speed="11.54"/>
            </lane>
            <lane id="A_1">
                <vehicle id="carflow2.0" pos="18.51" speed="9.28"/>
            </lane>
            <lane id="A_2">
                <vehicle id="carflow1.0" pos="27.52" speed="14.25"/>
            </lane>
        </edge>
    </timestep>
    <timestep time="3.10">
        <edge id="A">
            <lane id="A_0">
                <vehicle id="carflow3.0" pos="23.64" speed="12.01"/>
            </lane>
            <lane id="A_1">
                <vehicle id="carflow2.0" pos="19.49" speed="9.76"/>
            </lane>
            <lane id="A_2">
                <vehicle id="carflow1.0" pos="28.99" speed="14.73"/>
            </lane>
        </edge>
    </timestep>
    <timestep time="3.20">
        <edge id="A">
            <lane id="A_0">
                <vehicle id="carflow3.0" pos="24.87" speed="12.27"/>
            </lane>
            <lane id="A_1">
                <vehicle id="carflow2.0" pos="20.48" speed="9.94"/>
            </lane>
            <lane id="A_2">
                <vehicle id="carflow1.0" pos="30.51" speed="15.18"/>
            </lane>
        </edge>
    </timestep>
    <timestep time="3.30">
        <edge id="A">
            <lane id="A_0">
                <vehicle id="carflow3.0" pos="26.13" speed="12.61"/>
            </lane>
            <lane id="A_1">
                <vehicle id="carflow2.0" pos="21.52" speed="10.35"/>
            </lane>
            <lane id="A_2">
                <vehicle id="carflow1.0" pos="32.07" speed="15.63"/>
            </lane>
        </edge>
    </timestep>
    <timestep time="3.40">
        <edge id="A">
            <lane id="A_0">
                <vehicle id="carflow3.0" pos="27.43" speed="13.01"/>
            </lane>
            <lane id="A_1">
                <vehicle id="carflow2.0" pos="22.58" speed="10.62"/>
            </lane>
            <lane id="A_2">
                <vehicle id="carflow1.0" pos="33.68" speed="16.12"/>
            </lane>
        </edge>
    </timestep>
    <timestep time="3.50">
        <edge id="A">
            <lane id="A_0">
                <vehicle id="carflow3.0" pos="28.77" speed="13.36"/>
            </lane>
            <lane id="A_1">
                <vehicle id="carflow2.0" pos="23.68" speed="11.04"/>
            </lane>
            <lane id="A_2">
                <vehicle id="carflow1.0" pos="35.34" speed="16.60"/>
            </lane>
        </edge>
    </timestep>
    <timestep time="3.60">
        <edge id="A">
            <lane id="A_0">
                <vehicle id="carflow2.1" pos="3.80" speed="0.00"/>
                <vehicle id="carflow3.0" pos="30.13" speed="13.64"/>
            </lane>
            <lane id="A_1">
                <vehicle id="carflow2.0" pos="24.82" speed="11.36"/>
            </lane>
            <lane id="A_2">
                <vehicle id="carflow1.1" pos="5.30" speed="0.00"/>
                <vehicle id="carflow1.0" pos="37.05" speed="17.06"/>
            </lane>
        </edge>
    </timestep>
    <timestep time="3.70">
        <edge id="A">
            <lane id="A_0">
                <vehicle id="carflow2.1" pos="3.85" speed="0.49"/>
                <vehicle id="carflow3.0" pos="31.53" speed="14.04"/>
            </lane>
            <lane id="A_1">
                <vehicle id="carflow2.0" pos="25.96" speed="11.38"/>
            </lane>
            <lane id="A_2">
                <vehicle id="carflow1.1" pos="5.35" speed="0.50"/>
                <vehicle id="carflow1.0" pos="38.80" speed="17.53"/>
            </lane>
        </edge>
    </timestep>
    <timestep time="3.80">
        <edge id="A">
            <lane id="A_0">
                <vehicle id="carflow2.1" pos="3.94" speed="0.94"/>
                <vehicle id="carflow3.0" pos="32.97" speed="14.37"/>
            </lane>
            <lane id="A_1">
                <vehicle id="carflow2.0" pos="27.11" speed="11.54"/>
            </lane>
            <lane id="A_2">
                <vehicle id="carflow1.1" pos="5.45" speed="1.00"/>
                <vehicle id="carflow1.0" pos="40.61" speed="18.02"/>
            </lane>
        </edge>
    </timestep>
    <timestep time="3.90">
        <edge id="A">
            <lane id="A_0">
                <vehicle id="carflow2.1" pos="4.08" speed="1.42"/>
                <vehicle id="carflow3.0" pos="34.44" speed="14.70"/>
            </lane>
            <lane id="A_1">
                <vehicle id="carflow2.0" pos="28.28" speed="11.74"/>
            </lane>
            <lane id="A_2">
                <vehicle id="carflow1.1" pos="5.60" speed="1.49"/>
                <vehicle id="carflow1.0" pos="42.46" speed="18.51"/>
            </lane>
        </edge>
    </timestep>
    <timestep time="4.00">
        <edge id="A">
            <lane id="A_0">
                <vehicle id="carflow2.1" pos="4.27" speed="1.81"/>
                <vehicle id="carflow3.0" pos="35.94" speed="14.99"/>
            </lane>
            <lane id="A_1">
                <vehicle id="carflow2.0" pos="29.49" speed="12.10"/>
            </lane>
            <lane id="A_2">
                <vehicle id="carflow1.1" pos="5.80" speed="1.98"/>
                <vehicle id="carflow1.0" pos="44.36" speed="18.99"/>
            </lane>
        </edge>
    </timestep>
    <timestep time="4.10">
        <edge id="A">
            <lane id="A_0">
                <vehicle id="carflow2.1" pos="4.50" speed="2.31"/>
                <vehicle id="carflow3.0" pos="37.48" speed="15.40"/>
            </lane>
            <lane id="A_1">
                <vehicle id="carflow2.0" pos="30.75" speed="12.54"/>
            </lane>
            <lane id="A_2">
                <vehicle id="carflow1.1" pos="6.04" speed="2.48"/>
                <vehicle id="carflow1.0" pos="46.30" speed="19.45"/>
            </lane>
        </edge>
    </timestep>
    <timestep time="4.20">
        <edge id="A">
            <lane id="A_0">
                <vehicle id="carflow2.1" pos="4.77" speed="2.78"/>
                <vehicle id="carflow3.0" pos="39.07" speed="15.89"/>
            </lane>
            <lane id="A_1">
                <vehicle id="carflow2.0" pos="32.01" speed="12.61"/>
            </lane>
            <lane id="A_2">
                <vehicle id="carflow1.1" pos="6.34" speed="2.95"/>
                <vehicle id="carflow1.0" pos="48.29" speed="19.94"/>
            </lane>
        </edge>
    </timestep>
    <timestep time="4.30">
        <edge id="A">
            <lane id="A_0">
                <vehicle id="carflow2.1" pos="5.10" speed="3.24"/>
                <vehicle id="carflow3.0" pos="40.69" speed="16.19"/>
            </lane>
            <lane id="A_1">
                <vehicle id="carflow2.0" pos="33.27" speed="12.63"/>
            </lane>
            <lane id="A_2">
                <vehicle id="carflow1.1" pos="6.68" speed="3.42"/>
                <vehicle id="carflow1.0" pos="50.33" speed="20.40"/>
            </lane>
        </edge>
    </timestep>
    <timestep time="4.40">
        <edge id="A">
            <lane id="A_0">
                <vehicle id="carflow2.1" pos="5.44" speed="3.41"/>
                <vehicle id="carflow3.0" pos="42.33" speed="16.46"/>
            </lane>
            <lane id="A_1">
                <vehicle id="carflow3.1" pos="4.60" speed="0.00"/>
                <vehicle id="carflow2.0" pos="34.54" speed="12.70"/>
            </lane>
            <lane id="A_2">
                <vehicle id="carflow1.1" pos="7.07" speed="3.92"/>
                <vehicle id="carflow1.0" pos="52.42" speed="20.86"/>
            </lane>
        </edge>
    </timestep>
    <timestep time="4.50">
        <edge id="A">
            <lane id="A_0">
                <vehicle id="carflow2.1" pos="5.82" speed="3.76"/>
                <vehicle id="carflow3.0" pos="44.02" speed="16.82"/>
            </lane>
            <lane id="A_1">
                <vehicle id="carflow3.1" pos="4.65" speed="0.49"/>
                <vehicle id="carflow2.0" pos="35.83" speed="12.87"/>
            </lane>
            <lane id="A_2">
                <vehicle id="carflow1.1" pos="7.51" speed="4.40"/>
                <vehicle id="carflow1.0" pos="54.55" speed="21.32"/>
            </lane>
        </edge>
    </timestep>
    <timestep time="4.60">
        <edge id="A">
            <lane id="A_0">
                <vehicle id="carflow2.1" pos="6.20" speed="3.85"/>
                <vehicle id="carflow3.0" pos="45.74" speed="17.23"/>
            </lane>
            <lane id="A_1">
                <vehicle id="carflow3.1" pos="4.74" speed="0.95"/>
                <vehicle id="carflow2.0" pos="37.15" speed="13.23"/>
            </lane>
            <lane id="A_2">
                <vehicle id="carflow1.1" pos="8.00" speed="4.90"/>
                <vehicle id="carflow1.0" pos="56.73" speed="21.79"/>
            </lane>
        </edge>
    </timestep>
    <timestep time="4.70">
        <edge id="A">
            <lane id="A_0">
                <vehicle id="carflow2.1" pos="6.60" speed="3.95"/>
                <vehicle id="carflow3.0" pos="47.49" speed="17.55"/>
            </lane>
            <lane id="A_1">
                <vehicle id="carflow3.1" pos="4.89" speed="1.44"/>
                <vehicle id="carflow2.0" pos="38.51" speed="13.58"/>
            </lane>
            <lane id="A_2">
                <vehicle id="carflow1.1" pos="8.54" speed="5.40"/>
                <vehicle id="carflow1.0" pos="58.96" speed="22.28"/>
            </lane>
        </edge>
    </timestep>
    <timestep time="4.80">
        <edge id="A">
            <lane id="A_0">
                <vehicle id="carflow2.1" pos="7.02" speed="4.25"/>
                <vehicle id="carflow3.0" pos="49.29" speed="17.92"/>
            </lane>
            <lane id="A_1">
                <vehicle id="carflow3.1" pos="5.07" speed="1.86"/>
                <vehicle id="carflow2.0" pos="39.87" speed="13.63"/>
            </lane>
            <lane id="A_2">
                <vehicle id="carflow1.1" pos="9.13" speed="5.88"/>
                <vehicle id="carflow1.0" pos="61.23" speed="22.74"/>
            </lane>
        </edge>
    </timestep>
    <timestep time="4.90">
        <edge id="A">
            <lane id="A_0">
                <vehicle id="carflow2.1" pos="7.46" speed="4.39"/>
                <vehicle id="carflow3.0" pos="51.12" speed="18.36"/>
            </lane>
            <lane id="A_1">
                <vehicle id="carflow3.1" pos="5.30" speed="2.29"/>
                <vehicle id="carflow2.0" pos="41.27" speed="13.92"/>
            </lane>
            <lane id="A_2">
                <vehicle id="carflow1.1" pos="9.77" speed="6.36"/>
                <vehicle id="carflow1.0" pos="63.55" speed="23.20"/>
            </lane>
        </edge>
    </timestep>
    <timestep time="5.00">
        <edge id="A">
            <lane id="A_0">
                <vehicle id="carflow2.1" pos="7.93" speed="4.72"/>
                <vehicle id="carflow3.0" pos="52.99" speed="18.68"/>
            </lane>
            <lane id="A_1">
                <vehicle id="carflow3.1" pos="5.58" speed="2.74"/>
                <vehicle id="carflow2.0" pos="42.68" speed="14.12"/>
            </lane>
            <lane id="A_2">
                <vehicle id="carflow1.1" pos="10.45" speed="6.85"/>
                <vehicle id="carflow1.0" pos="65.92" speed="23.66"/>
            </lane>
        </edge>
    </timestep>
    <timestep time="5.10">
        <edge id="A">
            <lane id="A_0">
                <vehicle id="carflow2.1" pos="8.44" speed="5.09"/>
                <vehicle id="carflow3.0" pos="54.89" speed="18.99"/>
            </lane>
            <lane id="A_1">
                <vehicle id="carflow3.1" pos="5.89" speed="3.17"/>
                <vehicle id="carflow2.0" pos="44.12" speed="14.41"/>
            </lane>
            <lane id="A_2">
                <vehicle id="carflow1.1" pos="11.18" speed="7.30"/>
                <vehicle id="carflow1.0" pos="68.33" speed="24.14"/>
            </lane>
        </edge>
    </timestep>
    <timestep time="5.20">
        <edge id="A">
            <lane id="A_0">
                <vehicle id="carflow2.1" pos="8.97" speed="5.27"/>
                <vehicle id="carflow3.0" pos="56.84" speed="19.46"/>
            </lane>
            <lane id="A_1">
                <vehicle id="carflow3.1" pos="6.25" speed="3.51"/>
                <vehicle id="carflow2.0" pos="45.58" speed="14.57"/>
            </lane>
            <lane id="A_2">
                <vehicle id="carflow1.1" pos="11.96" speed="7.76"/>
                <vehicle id="carflow1.0" pos="70.80" speed="24.62"/>
            </lane>
        </edge>
    </timestep>
    <timestep time="5.30">
        <edge id="A">
            <lane id="A_0">
                <vehicle id="carflow2.1" pos="9.53" speed="5.60"/>
                <vehicle id="carflow3.0" pos="58.81" speed="19.75"/>
            </lane>
            <lane id="A_1">
                <vehicle id="carflow3.1" pos="6.63" speed="3.88"/>
                <vehicle id="carflow2.0" pos="47.06" speed="14.89"/>
            </lane>
            <lane id="A_2">
                <vehicle id="carflow1.1" pos="12.78" speed="8.24"/>
                <vehicle id="carflow1.0" pos="73.30" speed="25.08"/>
            </lane>
        </edge>
    </timestep>
    <timestep time="5.40">
        <edge id="A">
            <lane id="A_0">
                <vehicle id="carflow2.1" pos="10.12" speed="5.94"/>
                <vehicle id="carflow3.0" pos="60.83" speed="20.22"/>
            </lane>
            <lane id="A_1">
                <vehicle id="carflow3.1" pos="7.05" speed="4.17"/>
                <vehicle id="carflow2.0" pos="48.59" speed="15.22"/>
            </lane>
            <lane id="A_2">
                <vehicle id="carflow1.1" pos="13.65" speed="8.72"/>
                <vehicle id="carflow1.0" pos="75.86" speed="25.54"/>
            </lane>
        </edge>
    </timestep>
    <timestep time="5.50">
        <edge id="A">
            <lane id="A_0">
                <vehicle id="carflow2.1" pos="10.77" speed="6.44"/>
                <vehicle id="carflow3.0" pos="62.88" speed="20.50"/>
            </lane>
            <lane id="A_1">
                <vehicle id="carflow3.1" pos="7.52" speed="4.67"/>
                <vehicle id="carflow2.0" pos="50.16" speed="15.69"/>
            </lane>
            <lane id="A_2">
                <vehicle id="carflow1.1" pos="14.57" speed="9.19"/>
                <vehicle id="carflow1.0" pos="78.46" speed="25.99"/>
            </lane>
        </edge>
    </timestep>
    <timestep time="5.60">
        <edge id="A">
            <lane id="A_0">
                <vehicle id="carflow2.1" pos="11.42" speed="6.57"/>
                <vehicle id="carflow3.0" pos="64.97" speed="20.92"/>
            </lane>
            <lane id="A_1">
                <vehicle id="carflow3.1" pos="8.02" speed="5.03"/>
                <vehicle id="carflow2.0" pos="51.76" speed="16.07"/>
            </lane>
            <lane id="A_2">
                <vehicle id="carflow1.1" pos="15.54" speed="9.65"/>
                <vehicle id="carflow1.0" pos="81.10" speed="26.45"/>
            </lane>
        </edge>
    </timestep>
    <timestep time="5.70">
        <edge id="A">
            <lane id="A_0">
                <vehicle id="carflow2.1" pos="12.08" speed="6.59"/>
                <vehicle id="carflow3.0" pos="67.11" speed="21.33"/>
            </lane>
            <lane id="A_1">
                <vehicle id="carflow3.1" pos="8.57" speed="5.51"/>
                <vehicle id="carflow2.0" pos="53.40" speed="16.42"/>
            </lane>
            <lane id="A_2">
                <vehicle id="carflow1.1" pos="16.55" speed="10.13"/>
                <vehicle id="carflow1.0" pos="83.80" speed="26.92"/>